% Model:              VLR_3_01V03.mph
% Version:            COMSOL 5.5.0.292
% Date:               Jun 7 2021, 20:11
% Dimension:          2
% Nodes:              4099
% Expressions:        1
% Description:        Electric potential
% Length unit:        cm
% x                       y                        V2 (V)
0.39080863877424665       0.3118791558591572       10.408176638133483
0.45026512581739786       0.21739667999452736      10.284444583882356
0.48758681844206186       0.32598023463465997      10.48514637901504
0.41048493200493785       0.41952610846770966      10.62498338908287
0.31187277320539863       0.3908137322730279       10.511586892348358
0.4872766005642619        0.11207816264793434      10.146511841178997
0.5503599282704517        0.22039420481386918      10.330082883119571
0.3116542852490404        0.49953389157873584      10.746059251830019
0.21738934113144803       0.45026866908817337      10.58955615220021
0.5                       0                        10.000036244416714
0.5896711139009045        0.03811092831988604      10.056907329304437
0.1935089086255084        0.5533646648360809       10.824507801103225
0.11207551993605773       0.4872772084050949       10.638139461107396
0.4872772084050949        -0.11207551993605773     9.853251770585153
0.5881381077394129        -0.08268200830602108     9.87597717211676
0.06636349304713789       0.584598351120474        10.873280356170627
0                         0.5                      10.654846660202939
0.45026866908817337       -0.21738934113144803     9.715461144259583
0.5529687025745758        -0.20469591462298223     9.694382242404439
-0.06627635867680697      0.5839550035654238       10.87170583672078
-0.11207816264793434      0.4872766005642619       10.638148838685625
0.4964504665163057        -0.3184379018203482      9.524308667406741
0.3908137322730279        -0.31187277320539863     9.591745398584443
-0.19562377983232743      0.556122596048709        10.831605972221526
-0.21739667999452736      0.45026512581739786      10.5895787866739
0.41581893313688956       -0.4175197257393741      9.376346514047903
0.3118791558591571        -0.39080863877424665     9.488303985478497
-0.31284476107129605      0.49714251643966634      10.74135953614636
-0.3118791558591571       0.39080863877424665      10.511590680432601
0.3168616916746563        -0.5002689038683753      9.250024309283363
0.21739667999452736       -0.45026512581739786     9.410318981862668
-0.4125800704106718       0.4151951192619352       10.61742669643242
-0.3908137322730279       0.31187277320539863      10.408147782407251
-0.49266465407603494      0.3159638353139655       10.469580102940158
-0.45026866908817337      0.21738934113144803      10.284431604489189
-0.5506585401326607       0.2057509363531712       10.306491791251501
-0.4872772084050949       0.11207551993605773      10.14663499629688
0.11207816264793434       -0.4872766005642619      9.361745676210823
0.2001426232367976        -0.5667773091854957      9.142079780917044
-0.5857971775694732       0.082650084404482        10.123569814291285
-0.5                      0                        9.999943517501489
-0.59003413858007         -0.03890026004314585     9.941788478781815
-0.4872766005642619       -0.11207816264793434     9.853277688350309
0                         -0.5                     9.345054279874203
0.056132221849335716      -0.6109281031009709      9.063794771094999
-0.11207551993605773      -0.4872772084050949      9.36176370525075
-0.08555390412079077      -0.5907733299489514      9.109323867290483
-0.21738934113144803      -0.45026866908817337     9.410343656983276
-0.20840930273776515      -0.5551139843515396      9.166794134064949
-0.45026512581739786      -0.21739667999452736     9.715451113322692
-0.5536909994263707       -0.22039254037394795     9.668746588586556
-0.39080863877424665      -0.3118791558591571      9.591717167175942
-0.4928691769077714       -0.3244859116598696      9.515110382307233
-0.31187277320539863      -0.3908137322730279      9.488309494887002
-0.319009672153118        -0.4968685234974678      9.25649756331716
-0.41413480810298176      -0.41819285415963203     9.375821152046228
0.2812933085958668        0.1733580421001283       10.265058760108763
0.3595605649657652        0.1752603780707428       10.267894485867533
0.3123374696635576        0.24989058614554938      10.382105598113148
0.2498898236215565        0.31233807973154243      10.477713813056099
0.22452434798447446       0.22507631782483442      10.344204136936085
0.1807440179908688        0.28611645331563473      10.43762392785205
0.1752595196595467        0.35956098337932185      10.550053740073603
0.3892556712195718        0.09208703721697553      10.140566613700475
0.29929230488346237       0.10292909881672399      10.157336399171188
0.3296285914908142        0.028086480724380428     10.04289117789323
0.4                       0                        10.000081223612984
0.09209011500642295       0.3892549430875654       10.595518983458636
0.10805950343457078       0.30023325771624054      10.459264463557107
0.3892549430875654        -0.09209011500642295     9.859160368669166
0.3206873964544424        -0.04829818245760073     9.926094801531015
0.04053283410907764       0.33151913457455173      10.50716317734382
0                         0.4                      10.611967193699678
0.3174967097310324        -0.11564085967554737     9.82311967920526
0.35956098337932185       -0.1752595196595467      9.731977306723472
-0.09208703721697553      0.3892556712195718       10.595524773970403
-0.0346905882084059       0.3164345835230899       10.484079265005489
0.27299334225429234       -0.1711391149265667      9.738215493666063
0.31233807973154243       -0.2498898236215565      9.61778339338652
-0.11002986587287424      0.31396823259337936      10.48028452317076
-0.1752603780707428       0.3595605649657652       10.550019206849607
0.24989058614554938       -0.3123374696635576      9.52222079919099
0.22451339025308287       -0.2277145789456995      9.651644810954437
-0.24989058614554938      0.3123374696635576       10.477673349748393
-0.1735922480582545       0.267462604842424        10.409090081282356
-0.23850656847455373      0.2375113300282372       10.36322690810734
-0.31233807973154243      0.2498898236215565       10.382110981198792
-0.35956098337932185      0.1752595196595467       10.267915349290778
-0.2702153148059943       0.1704141492781886       10.260572603707573
0.1752603780707428        -0.3595605649657652      9.4498749016284
0.16141984136091395       -0.2762498760677834      9.577351828422225
-0.18221308542493178      -0.2841309955269433      9.565309402833968
-0.2498898236215565       -0.31233807973154243     9.522180465982528
-0.1752595196595467       -0.35956098337932185     9.449841915363434
-0.31864723695726316      0.11365899056770826      10.173746285316524
-0.3892549430875654       0.09209011500642295      10.140729620178316
-0.31723043925673017      0.03894715061187612      10.059507113192032
-0.4                      0                        9.999949813873437
0.10667415377838582       -0.3167751657953733      9.515312025448877
0.09208703721697553       -0.3892556712195718      9.40436775434259
0.033679536585389594      -0.31841860737199484     9.512777623406064
0                         -0.4                     9.387927134725794
-0.09209011500642295      -0.3892549430875654      9.404376942797073
-0.11452973274558313      -0.3010066306311031      9.539448805322168
-0.04397835627912536      -0.3300733870273118      9.494943985040111
-0.33349613767784214      -0.03659468639303244     9.943990631836655
-0.3892556712195718       -0.09208703721697553     9.859202153729896
-0.3595605649657652       -0.1752603780707428      9.73199888049299
-0.3015013569308592       -0.10749892460689976     9.835560938797029
-0.2828717380126321       -0.18036560147495637     9.724113798907656
-0.3123374696635576       -0.24989058614554938     9.617787055089424
-0.22908738111901494      -0.2282792961560714      9.650792266379627
5.034799893525625         4.966555730342433        19.56675548053312
5.055042962982154         5                        19.402366253617707
5                         5                        20
5.07989446773655          4.9490329631368875       19.128519141807633
5.11631860600524          5                        18.91449764251962
5.039062030923166         4.93374568979945         19.405345656660952
5.058511357050483         4.907631857290361        19.151087791585194
5.273733903266916         4.948818534420753        18.078800928058314
5.304600002379231         5                        17.96632322333833
5.241837570851944         5                        18.229087396126634
5.179075139324657         5                        18.536847833983266
5.210820669047402         4.944487278432239        18.353769846566966
5.14590297336891          4.944856632612457        18.691858536344057
5.335981218142875         4.949312095137064        17.838643532577407
5.367362433906518         5                        17.735472825386537
5.396833812372829         4.943423383004369        17.627106300752335
5.430124865433806         5                        17.528796261588454
5                         4.95                     20
5.016437031542592         4.902818686184251        19.388508853444478
5.053286638943122         4.862442112627704        18.99404048234047
5.109623450300278         4.8904408319135095       18.793507207104877
5.304552935966038         4.906493449924619        17.932481394016
5.244699679319842         4.88842925534944         18.15153866844462
5.179674741499021         4.884819239799283        18.430661655667436
5.496998109710949         5                        17.32960542517762
5.464306239152073         4.935696121539312        17.415645785311764
5.362594445529547         4.8870371501435725       17.71364355385322
5.420633672072166         4.888494931206267        17.528284404826476
4.9441815565173           4.95                     20
4.968516621463741         4.900996651117704        19.583027388153543
4.99852406698497          4.8495350167597575       19.169684833478332
5.536238731338698         4.922157434504246        17.210531226300432
5.5821506621494486        5                        17.10115416486647
5.039681991548198         4.80205760273247         18.81011476244551
5.089764712219758         4.826546129856456        18.699417114446817
5.146607336511403         4.8209874572335085       18.44579172833691
5.304997658898126         4.832872315968841        17.862070047339838
5.22039434044629          4.819713983254545        18.151071431086397
5.4784662328383895        4.8567107197455295       17.341356070053994
5.400888189030965         4.817960529640144        17.538684741018983
4.9075706802532455        4.895888430010199        19.665393044515202
4.878517688190861         4.95                     20
4.808853399352168         4.95                     20
4.842015678676228         4.889811623193733        19.693651626547084
4.739159871825319         4.95                     20
4.774393427620056         4.8880085636541          19.723703245296566
4.669466344298472         4.95                     20
4.704241121622954         4.888659750442739        19.752782541595845
4.939719468542251         4.838085527850733        19.284478611086374
4.978211000359473         4.783405438692471        18.93034082879794
4.599772816771623         4.95                     20
4.634223874161789         4.8873020668762015       19.766288579141005
4.530079289244776         4.95                     20
4.565778181324246         4.886737750727608        19.778290051653077
4.460385761717928         4.95                     20
4.495568717507218         4.887796550994022        19.79315233297687
4.3906922341910795        4.95                     20
4.425133086988855         4.887221312516125        19.800347164496795
4.320998706664232         4.950000000000001        20
4.356042219468153         4.886821704020222        19.80650085575887
4.2513051791373835        4.949999999999999        20
4.285834691162218         4.8874062375085146       19.814573552539255
4.181611651610536         4.95                     20
4.21593290007186          4.886797034694037        19.81815564824038
4.111918124083688         4.95                     20
4.147433653828377         4.886657986415671        19.822326874512182
4.0422245965568395        4.949999999999999        20
4.077541498671418         4.8871371718489485       19.827710872471922
3.972531069029992         4.95                     20
4.007515437442085         4.886262551696163        19.828922641612085
3.902837541503143         4.95                     20
3.9388263403852535        4.886058793927781        19.831522747458536
3.833144013976295         4.949999999999999        20
3.8686106367993722        4.886730295158155        19.83613026566044
5.634965893765035         4.900067507654845        16.9574555251065
5.691581331155369         5                        16.840656346112958
5.564203596477483         4.819353083676913        17.09518273193558
5.023088426832165         4.73441739554449         18.617165937640582
5.0996408829663284        4.7567812140071215       18.449025756012762
5.337560335207883         4.75819796645842         17.66557771657851
5.183672582412858         4.743264756542412        18.13162436735411
5.264782819394312         4.7480676989019415       17.87670485131809
5.484526968958951         4.756602217906298        17.25266536016369
5.4047404800527215        4.717717892646687        17.424342163776114
4.876203069065967         4.827895634386034        19.353186916841413
4.809242049407326         4.8228581854188635       19.412565778956075
4.74284844483634          4.826721822869263        19.48426965047435
4.665682458173063         4.827310341562753        19.531512439135184
4.913324793157099         4.766753217924897        19.01402829269695
4.954918193932661         4.7095497108091475       18.70163968347609
4.6004023628841635        4.821104434592829        19.537886760008178
4.534622027375901         4.824223451902593        19.571925516320658
4.457410241547792         4.8273613905239445       19.603589347894225
4.390700350938213         4.821341194755653        19.59988509741658
4.322900466023695         4.824952976974611        19.6240232138093
4.247835850321098         4.82585773874808         19.638815798890665
4.181575854624975         4.82085317973319         19.63384148562324
4.116022080766833         4.825155367773923        19.653975296559903
4.0401350361737585        4.824742199913563        19.66095122201644
3.763450486449448         4.95                     20
3.7981615846481507        4.886057697610023        19.83696643326125
3.693756958922599         4.95                     20
3.7291484597979014        4.885864581920143        19.838755678109152
3.9738333965635366        4.819632936908026        19.653660666695043
3.9076334747267163        4.823719829977187        19.670121238620762
3.8310656019539224        4.824535791377766        19.678021667198404
5.760993545333719         4.874261382461489        16.67421977359165
5.832293264956229         5                        16.54878084273728
5.67298021709796          4.773820908969032        16.81893239766427
5.575630482667653         4.698314680772849        16.982801402059014
4.997157853041384         4.66626411090189         18.456642651139962
5.061230416991731         4.6650911760407086       18.294306831907026
5.1421838031086065        4.662727055352155        18.06948313171901
5.314533319495891         4.672486472017593        17.607987892096663
5.228426312050211         4.6513111305052          17.806153781474194
5.480541814898704         4.6459581147177955       17.15151954662879
5.385735616142528         4.6255190361864145       17.353780158725755
3.624063431395752         4.95                     20
3.6589595883191746        4.886335835541366        19.84202445248893
3.5543699038689027        4.95                     20
3.5886894730703442        4.88550143724082         19.841872913708702
3.4846763763420543        4.95                     20
3.519794701256771         4.885404207919129        19.8433515742187
3.345289321288359         4.949999999999999        20
3.2755957937615108        4.95                     20
3.310631113476633         4.885688727977654        19.848406520488613
3.4149828488152068        4.95                     20
3.449521501761115         4.886069277220619        19.84654893066048
3.3791811518263657        4.885563650466005        19.846799864394374
4.8453366832001565        4.753942661384442        19.078899501932693
4.7729277616879715        4.748906492881977        19.150946669186613
4.703730266958632         4.774370844232983        19.310270302909178
4.634717556273163         4.752195939904465        19.278333892556706
4.885557295620065         4.687630037852595        18.76054086880305
4.939039523144305         4.630015105893569        18.46405647107534
4.562588460057773         4.748678065298291        19.30755062992183
4.49544381034203          4.773074675485864        19.417150058100983
4.425445065813278         4.7510403637864          19.37294337882022
4.354239492349516         4.747547020573895        19.385132709216943
4.28586029910034          4.771150120534067        19.472627869189292
4.217208332362398         4.75011010961658         19.427397721455545
4.145102106004135         4.750442504063896        19.442941571935197
4.0780657652403915        4.7720545515516095       19.51350925152608
4.009932152957941         4.74847299367557         19.460319005090323
3.7635518068596725        4.819204325703803        19.66911618390894
3.6970121697067584        4.823574854868985        19.684262400008155
3.9375698794460368        4.746440625891051        19.465206545850634
3.8696945504829374        4.7699731698185825       19.534410422221466
3.800711871805008         4.748660636176332        19.487355778878513
5.921235993870625         4.8423523636375645       16.3638189270461
6.013070064374171         5                        16.229281421070887
5.810566289685493         4.717194322986853        16.513735867636687
5.6879824239286805        4.626152623258596        16.687342215504113
6.124506680022428         4.800169167773969        16.03150091579357
6.2454809485406635        5                        15.889724309953115
6.382477196465396         4.740639373497532        15.68560256473837
6.544240366575682         5                        15.544947711364907
5.563547874644139         4.568001136108451        16.88324410151645
5.007512704306054         4.592247166221537        18.20898407920927
5.089696751950945         4.574696646812415        17.98053783435761
5.181492240948831         4.559311021937843        17.732403697292536
5.298195727528049         4.555378419923931        17.452197701985455
5.43017141829263          4.535974219813815        17.12564807497719
3.205902266234663         4.95                     20
3.2407592408344446        4.886518919793542        19.85157723109481
3.621087222795686         4.823057218801667        19.687230328551667
3.5538612465487103        4.818195837636023        19.67882056320511
3.487649626169059         4.822654060565408        19.69277269800125
3.277978449467926         4.823202150749875        19.70235270321942
3.3438913299386854        4.818818630772378        19.68961408752264
3.4107484696247417        4.822798409816679        19.696407037912348
4.803763088347008         4.672796805980415        18.833705654546648
4.70127636612125          4.682698280795888        18.984551439617686
4.598301333743978         4.670114869243429        19.027281242712608
4.856960727564023         4.592720241835477        18.487542717611692
4.930052919095612         4.526404440140625        18.167038322190937
4.49365520127921          4.683026462505431        19.132282732282828
4.386388256224839         4.666117560849678        19.13121577278669
4.283542198341949         4.680504062057688        19.2111685269081
4.179442174514973         4.665901047078055        19.201250123338323
4.079758871879539         4.678667754926049        19.260695315210764
3.969996934906059         4.658359776220046        19.229833607937092
3.7252111532463004        4.746532392269563        19.48972275704628
3.658244140193223         4.769699792021099        19.553182012919734
3.866459113553399         4.676327427700905        19.294514230504905
3.7568635489628197        4.664354995920232        19.28058227629623
5.986424761289259         4.6465780301914545       16.179354880983805
5.8326963256809155        4.533703949402231        16.354095540243986
5.670862104926617         4.460880346631861        16.565367957731308
6.209471675367336         4.558349223478351        15.823811573793117
6.504079278871268         4.449301898620464        15.446960238803731
6.928270135774818         5                        15.221307120135258
6.758553033504529         4.649290177964562        15.300146131075772
7.1750658196995225        4.602095517783176        15.019601502738267
7.4218585656009655        5                        14.966007424409556
7.617183654528197         4.626049852570034        14.86625725222917
8                         5                        14.865000990718753
8                         4.411764705882353        14.762465054777048
5.5067141155025014        4.417072434901644        16.80999080894739
5.022177353466798         4.483955430926039        17.886866597008808
5.115598853095136         4.4823522163816705       17.702094892011427
5.208232343814478         4.434155877974613        17.41423042925093
5.346293361039864         4.403916177044657        17.091589857723246
5.038350642641447         -4.964775677990923       0.47218295934653626
5                         -5                       0
5.055217179743244         -5                       0.5970732936878664
5                         -4.95                    0
5.0485537082599246        -4.924374670864267       0.7098421267341902
5.092438450494873         -4.95389581951409        0.9524252062636193
5.116682134651785         -5                       1.0862443264289685
5.083319464646572         -4.9034792107252905      1.0173677569432003
5.058590057658035         -4.884423163185198       0.9415133519932912
5.179622282962258         -5                       1.4646103105580373
5.153259611428527         -4.948228115197915       1.3446384873457993
5.242567095702073         -5                       1.772867123945291
5.213049670484946         -4.945593544894704       1.6546139298218894
5.305511908441889         -5                       2.036047387283707
5.276467950502159         -4.9416499219626875      1.934716494715797
3.1362087387078152        4.949999999999999        20
3.1707397626985037        4.886056919511479        19.85162781243248
3.066515211180967         4.950000000000001        20
3.101769649098781         4.886064958697048        19.852676272906532
2.9968216836541184        4.95                     20
3.0317816827799553        4.886895698159972        19.855545807011485
2.92712815612727          4.95                     20
2.9618041839908145        4.886475728480982        19.855476179911587
2.8574346286004215        4.95                     20
2.8931495524572655        4.88643845791458         19.856204661571635
2.787741101073573         4.949999999999999        20
2.82334965575532          4.88745080111686         19.859251716075928
2.718047573546726         4.95                     20
2.7532033067978383        4.887101043606311        19.85917665184437
2.648354046019877         4.95                     20
2.6839829195141713        4.886750387300467        19.859049891240833
2.578660518493029         4.95                     20
2.6137632669777457        4.887172466773399        19.860609001479848
3.203706332639158         4.824158202129498        19.707044245365584
3.5899330242227787        4.747419339533726        19.503909867458066
3.5160134317776213        4.745138761755389        19.504088987138314
3.449191599354699         4.770066876941637        19.568486705189553
3.2406399958685146        4.767602945872291        19.573817299276513
3.30442181502076          4.748881238513123        19.526684158302885
3.3803869802156896        4.7467776071109355       19.517224716447192
4.7598713390194565        4.5682250656244205       18.544104074594255
4.650038252542972         4.56372700484641         18.647922615361832
4.543999704337926         4.563871204467807        18.736288613068893
4.931147133330659         4.388239114327156        17.79416616997244
4.823480072761835         4.471249581639972        18.1723168053303
4.434800594871936         4.561838858992445        18.801357699642946
4.3349006652844           4.554320348054097        18.832418380642967
4.229543985640322         4.5526364810992765       18.87345457025913
4.124257858942922         4.555765842746462        18.919579893661446
4.015833335231569         4.553081440127809        18.94494157682909
3.9105435153718475        4.547157128270369        18.956563642535148
3.6550879509403473        4.67477758548701         19.319504023822855
3.802555934106886         4.548723306009716        18.984123529800684
3.6972986758831525        4.553739162860643        19.016217999180324
2.508966990966181         4.95                     20
2.543649427465074         4.886468423801484        19.85962967349891
2.439273463439333         4.95                     20
2.474598730630937         4.8864270728019985       19.860074532847907
6.020061803737379         4.421861386069592        15.988015806058138
5.816370875534979         4.319180592421219        16.187145814700497
5.614804374306194         4.273312428436845        16.439370122245197
6.239343245134195         4.290774295064337        15.62376375040945
6.4771027415932725        4.1617427715903945       15.298488204332333
6.835535627758506         4.2208440381015135       15.061104752692172
8                         3.823529411764707        14.466859379578272
7.48899390103012          4.116389038062944        14.705226680353032
5.41006782677872          4.263666091961646        16.751713974320243
5.076395575294625         4.359642104257446        17.49402520511343
5.222264884462607         4.284474045056626        17.095527838874315
5.019527225576662         -4.888689251133074       0.710171757392222
4.944275319768828         -4.95                    0
4.967049677098205         -4.892487323387134       0.4709677475263705
5.04810514291645          -4.843692230266443       1.0575033670333127
5.125173755322843         -4.9057548039760634      1.2538252104946477
5.093466413658704         -4.861841066059973       1.2037281847945458
5.18284353296621          -4.893233302966703       1.569522495083383
5.245295100251149         -4.88739901190695        1.8508293345650453
5.375138994510708         -5                       2.290223769221828
5.343522445999308         -4.936220068473591       2.192433708191206
5.30892232588472          -4.880707867714923       2.102767066592762
3.1360917272654607        4.819592728915102        19.698553802168906
3.0692824881312766        4.82383898275104         19.710254390177585
2.861737280309584         4.824172439140025        19.716083755799115
2.994498179108177         4.824986656767196        19.71483081516888
2.9274433657155385        4.82052407356504         19.706327616493436
2.7868325658568787        4.826985371880783        19.72396734833619
2.7192618559382993        4.821411899297906        19.712814965602977
2.6512624018472715        4.824809669070861        19.721635791396725
2.576665513471512         4.825001113320075        19.723321442539767
3.1720271168250562        4.749216017823441        19.534372755106435
3.5463971582331126        4.655862379004442        19.28573739266768
3.445909940052786         4.674934003089213        19.341456311421585
3.2418171495140555        4.685213758397432        19.38171424513138
3.336528635773861         4.660513487659558        19.31678517353555
4.695167391752319         4.445726157773104        18.254593719975826
4.584830412476462         4.4419472571837915       18.349931958830947
4.489351063046996         4.4753221838943205       18.518844760974893
4.93451535973543          4.249257935416775        17.452252116128264
4.766644589762842         4.302803372510889        17.791368701773518
4.392279987520133         4.43922580809633         18.48249120907658
4.2828489691072225        4.425599317229165        18.50677878840771
4.174289647432696         4.430587932633128        18.570547819054934
4.069637702826623         4.453490655691092        18.670481622254123
3.9661695792434513        4.423893947131674        18.62953178260507
3.8443922548203733        4.422321492489863        18.660787330320712
3.5872472423074653        4.552854000740757        19.03184417027396
3.741063652111175         4.427859689901408        18.699896570340826
3.6410451244291933        4.453833180276137        18.78393256255865
2.369579935912485         4.949999999999999        20
2.4043950657157502        4.887368567312064        19.862648585778484
2.509240748408451         4.820209022055508        19.71382009884346
2.442066687790831         4.824516423642931        19.724309477602507
7.514067458136867         3.5006626433588637       14.28177342266588
8                         3.2352941176470598       14.00771857097539
5.52329245392921          4.111016978651402        16.35119775334712
5.991469608011855         4.163673479608296        15.802232294668629
5.73756739282944          4.0795379585356075       16.02444055467151
6.233874363224059         3.9897170110189264       15.380030699207994
6.598565392868312         3.8654037128781114       14.97426572489236
7.017182909253959         3.7211218517070788       14.618746419009982
5.2769460848534795        4.040142781428795        16.569110948819382